
Host: log-3

Timers On : Thu Nov 16 13:36:46 2023
Timers Off: Thu Nov 16 13:36:47 2023

Wall Time:        0.75 seconds

                                                       Time (seconds)
Module                                       User      System        Wall        Calls

--------------------------------------------------------------------------------------

**************************************************************************************
